REMARK  Name = /home/chenty/abacust_mem/src/inference/npys/all_lig/9IVK_chainA/lig_A_KY6_301_1.pdb
REMARK  7 active torsions:
REMARK  status: ('A' for Active; 'I' for Inactive)
REMARK    1  A    between atoms: C11_2  and  C12_3
REMARK    2  A    between atoms: C13_4  and  C14_5
REMARK    3  A    between atoms: C13_4  and  C16_6
REMARK    4  A    between atoms: C19_9  and  C20_10
REMARK    5  A    between atoms: C03_12  and  C04_13
REMARK    6  A    between atoms: C03_12  and  N02_22
REMARK    7  A    between atoms: C06_14  and  N02_22
REMARK                            x       y       z     vdW  Elec       q    Type
REMARK                         _______ _______ _______ _____ _____    ______ ____
ROOT
ATOM      1  C10 KY6 A 301     111.000 113.692  75.630  0.00  0.00    +0.000 A 
ATOM      2  C11 KY6 A 301     111.318 112.685  76.500  0.00  0.00    +0.000 A 
ATOM      3  C06 KY6 A 301     112.944 112.857  71.943  0.00  0.00    +0.000 A 
ATOM      4  C07 KY6 A 301     112.133 114.022  72.023  0.00  0.00    +0.000 A 
ATOM      5  C08 KY6 A 301     111.460 114.349  73.191  0.00  0.00    +0.000 A 
ATOM      6  C09 KY6 A 301     111.600 113.526  74.324  0.00  0.00    +0.000 A 
ATOM      7  C25 KY6 A 301     112.404 112.384  74.256  0.00  0.00    +0.000 A 
ATOM      8  C26 KY6 A 301     113.078 112.031  73.094  0.00  0.00    +0.000 A 
ATOM      9  S24 KY6 A 301     112.418 111.537  75.767  0.00  0.00    +0.000 S 
ENDROOT
BRANCH   2  10
ATOM     10  C12 KY6 A 301     110.791 112.625  77.865  0.00  0.00    +0.000 C 
ATOM     11  C13 KY6 A 301     110.871 111.675  78.837  0.00  0.00    +0.000 C 
BRANCH  11  12
ATOM     12  C16 KY6 A 301     110.278 111.736  80.217  0.00  0.00    +0.000 A 
ATOM     13  C17 KY6 A 301     110.423 110.687  81.137  0.00  0.00    +0.000 A 
ATOM     14  C18 KY6 A 301     109.871 110.749  82.413  0.00  0.00    +0.000 A 
ATOM     15  C19 KY6 A 301     109.161 111.874  82.803  0.00  0.00    +0.000 A 
ATOM     16  C22 KY6 A 301     109.006 112.931  81.921  0.00  0.00    +0.000 A 
ATOM     17  C23 KY6 A 301     109.560 112.857  80.650  0.00  0.00    +0.000 A 
BRANCH  15  18
ATOM     18  C20 KY6 A 301     108.587 111.947  84.127  0.00  0.00    +0.000 C 
ATOM     19  N21 KY6 A 301     108.144 112.043  85.178  0.00  0.00    +0.000 NA
ENDBRANCH  15  18
ENDBRANCH  11  12
BRANCH  11  20
ATOM     20  C14 KY6 A 301     111.600 110.476  78.523  0.00  0.00    +0.000 C 
ATOM     21  N15 KY6 A 301     112.190 109.523  78.278  0.00  0.00    +0.000 NA
ENDBRANCH  11  20
ENDBRANCH   2  10
BRANCH   3  23
ATOM     22  C01 KY6 A 301     114.794 111.623  70.787  0.00  0.00    +0.000 C 
ATOM     23  N02 KY6 A 301     113.621 112.532  70.763  0.00  0.00    +0.000 N 
BRANCH  23  24
ATOM     24  C03 KY6 A 301     113.258 113.084  69.446  0.00  0.00    +0.000 C 
BRANCH  24  25
ATOM     25  C04 KY6 A 301     114.088 114.342  69.110  0.00  0.00    +0.000 C 
ATOM     26  O05 KY6 A 301     113.838 114.838  67.783  0.00  0.00    +0.000 OA
ENDBRANCH  24  25
ENDBRANCH  23  24
ENDBRANCH   3  23
TORSDOF 7
