REMARK  Name = /home/chenty/abacust_mem/src/inference/npys/all_lig/4LDE/lig_A_1WV_1403_3.pdb
REMARK  8 active torsions:
REMARK  status: ('A' for Active; 'I' for Inactive)
REMARK    1  A    between atoms: C10_1  and  C09_7
REMARK    2  A    between atoms: C13_2  and  C14_10
REMARK    3  A    between atoms: C17_3  and  O16_12
REMARK    4  A    between atoms: C17_3  and  C18_13
REMARK    5  A    between atoms: C20_4  and  C18_13
REMARK    6  A    between atoms: C08_6  and  C09_7
REMARK    7  A    between atoms: C11_8  and  C12_9
REMARK    8  A    between atoms: C14_10  and  O16_12
REMARK                            x       y       z     vdW  Elec       q    Type
REMARK                         _______ _______ _______ _____ _____    ______ ____
ROOT
ATOM      1  C14 1WV A1403     -12.394 -21.233 -55.203  0.00  0.00    +0.000 C 
ATOM      2  O15 1WV A1403     -11.888 -22.319 -55.142  0.00  0.00    +0.000 OA
ENDROOT
BRANCH   1   3
ATOM      3  C13 1WV A1403     -12.608 -20.464 -53.946  0.00  0.00    +0.000 C 
ATOM      4  C12 1WV A1403     -12.587 -21.223 -52.644  0.00  0.00    +0.000 C 
BRANCH   4   6
ATOM      5  C10 1WV A1403     -13.782 -21.436 -50.364  0.00  0.00    +0.000 C 
ATOM      6  C11 1WV A1403     -13.152 -20.548 -51.428  0.00  0.00    +0.000 C 
BRANCH   5   7
ATOM      7  C09 1WV A1403     -13.941 -20.878 -48.954  0.00  0.00    +0.000 C 
BRANCH   7   9
ATOM      8  C07 1WV A1403     -13.818 -22.082 -46.715  0.00  0.00    +0.000 C 
ATOM      9  C08 1WV A1403     -14.522 -21.829 -47.889  0.00  0.00    +0.000 C 
ENDBRANCH   7   9
ENDBRANCH   5   7
ENDBRANCH   4   6
ENDBRANCH   1   3
BRANCH   1  10
ATOM     10  O16 1WV A1403     -13.056 -20.850 -56.364  0.00  0.00    +0.000 OA
BRANCH  10  11
ATOM     11  C17 1WV A1403     -13.032 -21.688 -57.496  0.00  0.00    +0.000 C 
BRANCH  11  12
ATOM     12  C18 1WV A1403     -14.250 -21.703 -58.379  0.00  0.00    +0.000 C 
ATOM     13  O19 1WV A1403     -14.682 -20.466 -58.780  0.00  0.00    +0.000 OA
BRANCH  12  14
ATOM     14  C20 1WV A1403     -14.200 -22.740 -59.484  0.00  0.00    +0.000 C 
ATOM     15  O21 1WV A1403     -14.643 -24.014 -59.184  0.00  0.00    +0.000 OA
ENDBRANCH  12  14
ENDBRANCH  11  12
ENDBRANCH  10  11
ENDBRANCH   1  10
TORSDOF 8
