REMARK  Name = /home/chenty/abacust_mem/src/inference/npys/all_lig/4LDE/lig_A_P0G_1401_1.pdb
REMARK  6 active torsions:
REMARK  status: ('A' for Active; 'I' for Inactive)
REMARK    1  A    between atoms: CAN_14  and  NAP_16
REMARK    2  A    between atoms: CAN_14  and  CAZ_26
REMARK    3  A    between atoms: CAO_15  and  CAV_22
REMARK    4  A    between atoms: CAO_15  and  CBA_27
REMARK    5  A    between atoms: NAP_16  and  CBA_27
REMARK    6  A    between atoms: CAW_23  and  CAZ_26
REMARK                            x       y       z     vdW  Elec       q    Type
REMARK                         _______ _______ _______ _____ _____    ______ ____
ROOT
ATOM      1  OAF P0G A1401      -3.656 -13.704 -47.543  0.00  0.00    +0.000 OA
ATOM      2  CAZ P0G A1401      -2.687 -13.464 -48.577  0.00  0.00    +0.000 C 
ENDROOT
BRANCH   2  12
ATOM      3  OAD P0G A1401       3.313 -13.708 -50.637  0.00  0.00    +0.000 OA
ATOM      4  OAE P0G A1401       2.310 -12.006 -46.394  0.00  0.00    +0.000 OA
ATOM      5  CAK P0G A1401      -0.043 -12.351 -46.134  0.00  0.00    +0.000 A 
ATOM      6  CAL P0G A1401      -1.271 -12.710 -46.682  0.00  0.00    +0.000 A 
ATOM      7  CAM P0G A1401       0.963 -14.115 -50.627  0.00  0.00    +0.000 C 
ATOM      8  NAQ P0G A1401       2.133 -12.722 -49.017  0.00  0.00    +0.000 NA
ATOM      9  OAR P0G A1401      -0.189 -13.431 -50.122  0.00  0.00    +0.000 OA
ATOM     10  CAS P0G A1401       2.240 -13.496 -50.093  0.00  0.00    +0.000 C 
ATOM     11  CAU P0G A1401       1.103 -12.357 -46.921  0.00  0.00    +0.000 A 
ATOM     12  CAW P0G A1401      -1.363 -13.076 -48.020  0.00  0.00    +0.000 A 
ATOM     13  CAX P0G A1401       1.019 -12.727 -48.248  0.00  0.00    +0.000 A 
ATOM     14  CAY P0G A1401      -0.201 -13.086 -48.797  0.00  0.00    +0.000 A 
ENDBRANCH   2  12
BRANCH   2  15
ATOM     15  CAN P0G A1401      -3.218 -12.339 -49.448  0.00  0.00    +0.000 C 
BRANCH  15  16
ATOM     16  NAP P0G A1401      -4.408 -12.801 -50.131  0.00  0.00    +0.000 NA
BRANCH  16  19
ATOM     17  CAB P0G A1401      -4.199 -10.932 -51.583  0.00  0.00    +0.000 C 
ATOM     18  CAC P0G A1401      -3.679 -13.236 -52.387  0.00  0.00    +0.000 C 
ATOM     19  CBA P0G A1401      -4.601 -12.400 -51.508  0.00  0.00    +0.000 C 
BRANCH  19  20
ATOM     20  CAO P0G A1401      -6.081 -12.556 -51.859  0.00  0.00    +0.000 C 
BRANCH  20  27
ATOM     21  CAA P0G A1401      -6.393 -10.915 -54.317  0.00  0.00    +0.000 C 
ATOM     22  CAG P0G A1401      -6.857 -14.410 -55.642  0.00  0.00    +0.000 A 
ATOM     23  CAH P0G A1401      -6.710 -15.185 -54.497  0.00  0.00    +0.000 A 
ATOM     24  CAI P0G A1401      -6.755 -13.027 -55.573  0.00  0.00    +0.000 A 
ATOM     25  CAJ P0G A1401      -6.467 -14.573 -53.281  0.00  0.00    +0.000 A 
ATOM     26  CAT P0G A1401      -6.502 -12.416 -54.354  0.00  0.00    +0.000 A 
ATOM     27  CAV P0G A1401      -6.345 -13.188 -53.208  0.00  0.00    +0.000 A 
ENDBRANCH  20  27
ENDBRANCH  19  20
ENDBRANCH  16  19
ENDBRANCH  15  16
ENDBRANCH   2  15
TORSDOF 6
