REMARK  Name = /home/chenty/abacust_mem/src/inference/npys/all_lig/3SN6/lig_R_P0G_1601_1.pdb
REMARK  6 active torsions:
REMARK  status: ('A' for Active; 'I' for Inactive)
REMARK    1  A    between atoms: CAN_14  and  NAP_16
REMARK    2  A    between atoms: CAN_14  and  CAZ_26
REMARK    3  A    between atoms: CAO_15  and  CAV_22
REMARK    4  A    between atoms: CAO_15  and  CBA_27
REMARK    5  A    between atoms: NAP_16  and  CBA_27
REMARK    6  A    between atoms: CAW_23  and  CAZ_26
REMARK                            x       y       z     vdW  Elec       q    Type
REMARK                         _______ _______ _______ _____ _____    ______ ____
ROOT
ATOM      1  OAF P0G R1601      20.219   7.096  -8.022  0.00  0.00    +0.000 OA
ATOM      2  CAZ P0G R1601      20.050   6.082  -9.018  0.00  0.00    +0.000 C 
ENDROOT
BRANCH   2  12
ATOM      3  OAD P0G R1601      15.473   2.174 -10.577  0.00  0.00    +0.000 OA
ATOM      4  OAE P0G R1601      17.850   1.512  -6.600  0.00  0.00    +0.000 OA
ATOM      5  CAK P0G R1601      19.237   3.447  -6.457  0.00  0.00    +0.000 A 
ATOM      6  CAL P0G R1601      19.784   4.578  -7.053  0.00  0.00    +0.000 A 
ATOM      7  CAM P0G R1601      16.978   3.992 -10.813  0.00  0.00    +0.000 C 
ATOM      8  NAQ P0G R1601      17.269   2.153  -9.238  0.00  0.00    +0.000 NA
ATOM      9  OAR P0G R1601      18.301   4.303 -10.383  0.00  0.00    +0.000 OA
ATOM     10  CAS P0G R1601      16.511   2.691 -10.195  0.00  0.00    +0.000 C 
ATOM     11  CAU P0G R1601      18.386   2.621  -7.182  0.00  0.00    +0.000 A 
ATOM     12  CAW P0G R1601      19.483   4.877  -8.376  0.00  0.00    +0.000 A 
ATOM     13  CAX P0G R1601      18.086   2.932  -8.496  0.00  0.00    +0.000 A 
ATOM     14  CAY P0G R1601      18.628   4.053  -9.082  0.00  0.00    +0.000 A 
ENDBRANCH   2  12
BRANCH   2  15
ATOM     15  CAN P0G R1601      21.412   5.757  -9.619  0.00  0.00    +0.000 C 
BRANCH  15  16
ATOM     16  NAP P0G R1601      21.940   6.908 -10.330  0.00  0.00    +0.000 NA
BRANCH  16  19
ATOM     17  CAB P0G R1601      22.267   5.666 -12.367  0.00  0.00    +0.000 C 
ATOM     18  CAC P0G R1601      20.455   7.365 -12.204  0.00  0.00    +0.000 C 
ATOM     19  CBA P0G R1601      21.876   7.015 -11.778  0.00  0.00    +0.000 C 
BRANCH  19  20
ATOM     20  CAO P0G R1601      22.870   8.103 -12.188  0.00  0.00    +0.000 C 
BRANCH  20  27
ATOM     21  CAA P0G R1601      23.974   7.094 -14.709  0.00  0.00    +0.000 C 
ATOM     22  CAG P0G R1601      21.930  10.040 -15.909  0.00  0.00    +0.000 A 
ATOM     23  CAH P0G R1601      21.403  10.523 -14.718  0.00  0.00    +0.000 A 
ATOM     24  CAI P0G R1601      22.762   8.928 -15.896  0.00  0.00    +0.000 A 
ATOM     25  CAJ P0G R1601      21.713   9.893 -13.519  0.00  0.00    +0.000 A 
ATOM     26  CAT P0G R1601      23.069   8.297 -14.696  0.00  0.00    +0.000 A 
ATOM     27  CAV P0G R1601      22.539   8.773 -13.506  0.00  0.00    +0.000 A 
ENDBRANCH  20  27
ENDBRANCH  19  20
ENDBRANCH  16  19
ENDBRANCH  15  16
ENDBRANCH   2  15
TORSDOF 6
