REMARK  Name = /home/chenty/abacust_mem/src/inference/npys/all_lig/7BZ2/lig_R_H98_401_1.pdb
REMARK  8 active torsions:
REMARK  status: ('A' for Active; 'I' for Inactive)
REMARK    1  A    between atoms: C2_2  and  C3_3
REMARK    2  A    between atoms: C2_2  and  N1_12
REMARK    3  A    between atoms: C3_3  and  C4_4
REMARK    4  A    between atoms: C7_7  and  O1_10
REMARK    5  A    between atoms: N1_12  and  C11_13
REMARK    6  A    between atoms: C11_13  and  C12_14
REMARK    7  A    between atoms: C12_14  and  C13_15
REMARK    8  A    between atoms: C15_17  and  N2_22
REMARK                            x       y       z     vdW  Elec       q    Type
REMARK                         _______ _______ _______ _____ _____    ______ ____
ROOT
ATOM      1  C11 H98 R 401      83.594  98.849 128.924  0.00  0.00    +0.000 C 
ENDROOT
BRANCH   1   2
ATOM      2  C12 H98 R 401      84.334  98.147 127.774  0.00  0.00    +0.000 C 
ATOM      3  O4  H98 R 401      84.785  99.036 126.811  0.00  0.00    +0.000 OA
BRANCH   2   4
ATOM      4  C13 H98 R 401      83.381  97.152 127.190  0.00  0.00    +0.000 A 
ATOM      5  C14 H98 R 401      82.352  96.688 127.966  0.00  0.00    +0.000 A 
ATOM      6  C15 H98 R 401      81.462  95.765 127.439  0.00  0.00    +0.000 A 
ATOM      7  C16 H98 R 401      81.626  95.316 126.127  0.00  0.00    +0.000 A 
ATOM      8  C17 H98 R 401      82.671  95.789 125.349  0.00  0.00    +0.000 A 
ATOM      9  C18 H98 R 401      83.548  96.708 125.888  0.00  0.00    +0.000 A 
ATOM     10  O2  H98 R 401      80.758  94.412 125.608  0.00  0.00    +0.000 OA
BRANCH   6  11
ATOM     11  N2  H98 R 401      80.410  95.286 128.220  0.00  0.00    +0.000 NA
ATOM     12  C19 H98 R 401      80.320  95.612 129.569  0.00  0.00    +0.000 C 
ATOM     13  O3  H98 R 401      79.409  95.205 130.280  0.00  0.00    +0.000 OA
ENDBRANCH   6  11
ENDBRANCH   2   4
ENDBRANCH   1   2
BRANCH   1  14
ATOM     14  N1  H98 R 401      84.324 100.059 129.284  0.00  0.00    +0.000 NA
BRANCH  14  16
ATOM     15  C1  H98 R 401      82.339 100.944 130.331  0.00  0.00    +0.000 C 
ATOM     16  C2  H98 R 401      83.814 100.628 130.540  0.00  0.00    +0.000 C 
BRANCH  16  17
ATOM     17  C3  H98 R 401      84.561 101.918 130.880  0.00  0.00    +0.000 C 
BRANCH  17  18
ATOM     18  C4  H98 R 401      84.652 102.043 132.352  0.00  0.00    +0.000 A 
ATOM     19  C5  H98 R 401      84.643 100.913 133.162  0.00  0.00    +0.000 A 
ATOM     20  C6  H98 R 401      84.726 101.026 134.539  0.00  0.00    +0.000 A 
ATOM     21  C7  H98 R 401      84.820 102.307 135.097  0.00  0.00    +0.000 A 
ATOM     22  C8  H98 R 401      84.831 103.441 134.295  0.00  0.00    +0.000 A 
ATOM     23  C9  H98 R 401      84.747 103.303 132.924  0.00  0.00    +0.000 A 
BRANCH  21  24
ATOM     24  O1  H98 R 401      84.901 102.359 136.460  0.00  0.00    +0.000 OA
ATOM     25  C10 H98 R 401      84.028 101.479 137.130  0.00  0.00    +0.000 C 
ENDBRANCH  21  24
ENDBRANCH  17  18
ENDBRANCH  16  17
ENDBRANCH  14  16
ENDBRANCH   1  14
TORSDOF 8
