REMARK  Name = /home/chenty/abacust_mem/src/inference/npys/all_lig/8W6E_chainB/lig_B_KY6_201_1.pdb
REMARK  9 active torsions:
REMARK  status: ('A' for Active; 'I' for Inactive)
REMARK    1  A    between atoms: C11_2  and  C12_3
REMARK    2  A    between atoms: C13_4  and  C14_5
REMARK    3  A    between atoms: C13_4  and  C16_6
REMARK    4  A    between atoms: C19_9  and  C20_10
REMARK    5  A    between atoms: C01_11  and  N02_22
REMARK    6  A    between atoms: C03_12  and  C04_13
REMARK    7  A    between atoms: C03_12  and  N02_22
REMARK    8  A    between atoms: C04_13  and  O05_25
REMARK    9  A    between atoms: C06_14  and  N02_22
REMARK                            x       y       z     vdW  Elec       q    Type
REMARK                         _______ _______ _______ _____ _____    ______ ____
ROOT
ATOM      1  C10 KY6 B 201      -8.499   3.089  -1.704  0.00  0.00    +0.000 A 
ATOM      2  C11 KY6 B 201      -7.519   3.435  -0.814  0.00  0.00    +0.000 A 
ATOM      3  C06 KY6 B 201     -10.932   0.148   0.167  0.00  0.00    +0.000 A 
ATOM      4  C07 KY6 B 201     -11.277   0.570  -1.147  0.00  0.00    +0.000 A 
ATOM      5  C08 KY6 B 201     -10.532   1.529  -1.818  0.00  0.00    +0.000 A 
ATOM      6  C09 KY6 B 201      -9.406   2.095  -1.190  0.00  0.00    +0.000 A 
ATOM      7  C25 KY6 B 201      -9.059   1.686   0.100  0.00  0.00    +0.000 A 
ATOM      8  C26 KY6 B 201      -9.792   0.733   0.789  0.00  0.00    +0.000 A 
ATOM      9  S24 KY6 B 201      -7.644   2.508   0.662  0.00  0.00    +0.000 S 
ENDROOT
BRANCH   2  10
ATOM     10  C12 KY6 B 201      -6.522   4.463  -1.095  0.00  0.00    +0.000 C 
ATOM     11  C13 KY6 B 201      -5.695   5.167  -0.275  0.00  0.00    +0.000 C 
BRANCH  11  12
ATOM     12  C16 KY6 B 201      -4.703   6.221  -0.672  0.00  0.00    +0.000 A 
ATOM     13  C17 KY6 B 201      -3.923   6.901   0.273  0.00  0.00    +0.000 A 
ATOM     14  C18 KY6 B 201      -3.006   7.878  -0.099  0.00  0.00    +0.000 A 
ATOM     15  C19 KY6 B 201      -2.825   8.178  -1.437  0.00  0.00    +0.000 A 
ATOM     16  C22 KY6 B 201      -3.561   7.505  -2.401  0.00  0.00    +0.000 A 
ATOM     17  C23 KY6 B 201      -4.476   6.537  -2.018  0.00  0.00    +0.000 A 
BRANCH  15  18
ATOM     18  C20 KY6 B 201      -1.876   9.191  -1.828  0.00  0.00    +0.000 C 
ATOM     19  N21 KY6 B 201      -1.154  10.030  -2.118  0.00  0.00    +0.000 NA
ENDBRANCH  15  18
ENDBRANCH  11  12
BRANCH  11  20
ATOM     20  C14 KY6 B 201      -5.755   4.865   1.128  0.00  0.00    +0.000 C 
ATOM     21  N15 KY6 B 201      -5.782   4.608   2.240  0.00  0.00    +0.000 NA
ENDBRANCH  11  20
ENDBRANCH   2  10
BRANCH   3  23
ATOM     22  C01 KY6 B 201     -11.308  -1.242   2.225  0.00  0.00    +0.000 C 
ATOM     23  N02 KY6 B 201     -11.690  -0.812   0.854  0.00  0.00    +0.000 N 
BRANCH  23  24
ATOM     24  C03 KY6 B 201     -12.879  -1.477   0.286  0.00  0.00    +0.000 C 
BRANCH  24  25
ATOM     25  C04 KY6 B 201     -12.513  -2.761  -0.483  0.00  0.00    +0.000 C 
BRANCH  25  26
ATOM     26  O05 KY6 B 201     -13.659  -3.553  -0.830  0.00  0.00    +0.000 OA
ATOM     27 H051 KY6 B 201     -14.398  -3.131  -0.946  0.00  0.00    +0.000 HD
ENDBRANCH  25  26
ENDBRANCH  24  25
ENDBRANCH  23  24
ENDBRANCH   3  23
TORSDOF 8
