REMARK  Name = /home/chenty/abacust_mem/src/inference/npys/all_lig/8W6E/lig_A_KY6_201_1.pdb
REMARK  9 active torsions:
REMARK  status: ('A' for Active; 'I' for Inactive)
REMARK    1  A    between atoms: C11_2  and  C12_3
REMARK    2  A    between atoms: C13_4  and  C14_5
REMARK    3  A    between atoms: C13_4  and  C16_6
REMARK    4  A    between atoms: C19_9  and  C20_10
REMARK    5  A    between atoms: C01_11  and  N02_22
REMARK    6  A    between atoms: C03_12  and  C04_13
REMARK    7  A    between atoms: C03_12  and  N02_22
REMARK    8  A    between atoms: C04_13  and  O05_25
REMARK    9  A    between atoms: C06_14  and  N02_22
REMARK                            x       y       z     vdW  Elec       q    Type
REMARK                         _______ _______ _______ _____ _____    ______ ____
ROOT
ATOM      1  C10 KY6 A 201       0.881   6.536  24.902  0.00  0.00    +0.000 A 
ATOM      2  C11 KY6 A 201      -0.265   6.947  24.282  0.00  0.00    +0.000 A 
ATOM      3  C06 KY6 A 201       2.734   3.679  22.373  0.00  0.00    +0.000 A 
ATOM      4  C07 KY6 A 201       3.404   4.051  23.570  0.00  0.00    +0.000 A 
ATOM      5  C08 KY6 A 201       2.855   4.981  24.446  0.00  0.00    +0.000 A 
ATOM      6  C09 KY6 A 201       1.617   5.567  24.136  0.00  0.00    +0.000 A 
ATOM      7  C25 KY6 A 201       0.954   5.207  22.962  0.00  0.00    +0.000 A 
ATOM      8  C26 KY6 A 201       1.484   4.286  22.073  0.00  0.00    +0.000 A 
ATOM      9  S24 KY6 A 201      -0.545   6.057  22.805  0.00  0.00    +0.000 S 
ENDROOT
BRANCH   2  10
ATOM     10  C12 KY6 A 201      -1.093   8.017  24.811  0.00  0.00    +0.000 C 
ATOM     11  C13 KY6 A 201      -2.184   8.656  24.302  0.00  0.00    +0.000 C 
BRANCH  11  12
ATOM     12  C16 KY6 A 201      -2.967   9.751  24.964  0.00  0.00    +0.000 A 
ATOM     13  C17 KY6 A 201      -4.037  10.387  24.325  0.00  0.00    +0.000 A 
ATOM     14  C18 KY6 A 201      -4.754  11.402  24.944  0.00  0.00    +0.000 A 
ATOM     15  C19 KY6 A 201      -4.458  11.760  26.250  0.00  0.00    +0.000 A 
ATOM     16  C22 KY6 A 201      -3.439  11.116  26.925  0.00  0.00    +0.000 A 
ATOM     17  C23 KY6 A 201      -2.722  10.114  26.293  0.00  0.00    +0.000 A 
BRANCH  15  18
ATOM     18  C20 KY6 A 201      -5.201  12.814  26.897  0.00  0.00    +0.000 C 
ATOM     19  N21 KY6 A 201      -5.761  13.683  27.372  0.00  0.00    +0.000 NA
ENDBRANCH  15  18
ENDBRANCH  11  12
BRANCH  11  20
ATOM     20  C14 KY6 A 201      -2.664   8.234  23.016  0.00  0.00    +0.000 C 
ATOM     21  N15 KY6 A 201      -3.065   7.877  22.005  0.00  0.00    +0.000 NA
ENDBRANCH  11  20
ENDBRANCH   2  10
BRANCH   3  23
ATOM     22  C01 KY6 A 201       2.573   2.347  20.246  0.00  0.00    +0.000 C 
ATOM     23  N02 KY6 A 201       3.291   2.743  21.491  0.00  0.00    +0.000 N 
BRANCH  23  24
ATOM     24  C03 KY6 A 201       4.570   2.058  21.749  0.00  0.00    +0.000 C 
BRANCH  24  25
ATOM     25  C04 KY6 A 201       4.394   0.824  22.652  0.00  0.00    +0.000 C 
BRANCH  25  26
ATOM     26  O05 KY6 A 201       5.605   0.063  22.796  0.00  0.00    +0.000 OA
ATOM     27 H051 KY6 A 201       6.100  -0.016  22.098  0.00  0.00    +0.000 HD
ENDBRANCH  25  26
ENDBRANCH  24  25
ENDBRANCH  23  24
ENDBRANCH   3  23
TORSDOF 8
