REMARK  Name = /home/chenty/abacust_mem/src/inference/npys/all_lig/3P0G/lig_A_P0G_366_1.pdb
REMARK  6 active torsions:
REMARK  status: ('A' for Active; 'I' for Inactive)
REMARK    1  A    between atoms: CAN_14  and  NAP_16
REMARK    2  A    between atoms: CAN_14  and  CAZ_26
REMARK    3  A    between atoms: CAO_15  and  CAV_22
REMARK    4  A    between atoms: CAO_15  and  CBA_27
REMARK    5  A    between atoms: NAP_16  and  CBA_27
REMARK    6  A    between atoms: CAW_23  and  CAZ_26
REMARK                            x       y       z     vdW  Elec       q    Type
REMARK                         _______ _______ _______ _____ _____    ______ ____
ROOT
ATOM      1  OAF P0G A 366      60.938  15.948  12.362  0.00  0.00    +0.000 OA
ATOM      2  CAZ P0G A 366      61.963  16.946  12.343  0.00  0.00    +0.000 C 
ENDROOT
BRANCH   2  12
ATOM      3  OAD P0G A 366      64.678  22.589  10.630  0.00  0.00    +0.000 OA
ATOM      4  OAE P0G A 366      60.698  20.876   8.379  0.00  0.00    +0.000 OA
ATOM      5  CAK P0G A 366      60.182  18.867   9.556  0.00  0.00    +0.000 A 
ATOM      6  CAL P0G A 366      60.505  17.910  10.509  0.00  0.00    +0.000 A 
ATOM      7  CAM P0G A 366      64.091  20.781  11.937  0.00  0.00    +0.000 C 
ATOM      8  NAQ P0G A 366      62.923  21.298   9.919  0.00  0.00    +0.000 NA
ATOM      9  OAR P0G A 366      63.564  19.409  11.934  0.00  0.00    +0.000 OA
ATOM     10  CAS P0G A 366      63.940  21.617  10.822  0.00  0.00    +0.000 C 
ATOM     11  CAU P0G A 366      60.995  19.976   9.353  0.00  0.00    +0.000 A 
ATOM     12  CAW P0G A 366      61.637  18.061  11.305  0.00  0.00    +0.000 A 
ATOM     13  CAX P0G A 366      62.113  20.165  10.152  0.00  0.00    +0.000 A 
ATOM     14  CAY P0G A 366      62.443  19.216  11.144  0.00  0.00    +0.000 A 
ENDBRANCH   2  12
BRANCH   2  15
ATOM     15  CAN P0G A 366      63.265  16.238  11.947  0.00  0.00    +0.000 C 
BRANCH  15  16
ATOM     16  NAP P0G A 366      63.661  15.202  12.928  0.00  0.00    +0.000 NA
BRANCH  16  19
ATOM     17  CAB P0G A 366      65.780  15.215  11.692  0.00  0.00    +0.000 C 
ATOM     18  CAC P0G A 366      65.558  16.391  13.896  0.00  0.00    +0.000 C 
ATOM     19  CBA P0G A 366      65.133  15.155  13.080  0.00  0.00    +0.000 C 
BRANCH  19  20
ATOM     20  CAO P0G A 366      65.539  13.823  13.758  0.00  0.00    +0.000 C 
BRANCH  20  27
ATOM     21  CAA P0G A 366      68.580  13.309  13.113  0.00  0.00    +0.000 C 
ATOM     22  CAG P0G A 366      68.665  14.126  16.825  0.00  0.00    +0.000 A 
ATOM     23  CAH P0G A 366      67.313  14.375  17.089  0.00  0.00    +0.000 A 
ATOM     24  CAI P0G A 366      69.038  13.786  15.528  0.00  0.00    +0.000 A 
ATOM     25  CAJ P0G A 366      66.343  14.274  16.084  0.00  0.00    +0.000 A 
ATOM     26  CAT P0G A 366      68.071  13.678  14.514  0.00  0.00    +0.000 A 
ATOM     27  CAV P0G A 366      66.701  13.925  14.777  0.00  0.00    +0.000 A 
ENDBRANCH  20  27
ENDBRANCH  19  20
ENDBRANCH  16  19
ENDBRANCH  15  16
ENDBRANCH   2  15
TORSDOF 6
