REMARK  Name = /home/chenty/abacust_mem/src/inference/npys/all_lig/7DHI/lig_R_68H_401_1.pdb
REMARK  5 active torsions:
REMARK  status: ('A' for Active; 'I' for Inactive)
REMARK    1  A    between atoms: C2_2  and  C12_3
REMARK    2  A    between atoms: C8_9  and  C1_10
REMARK    3  A    between atoms: C1_10  and  C3_12
REMARK    4  A    between atoms: C3_12  and  N1_13
REMARK    5  A    between atoms: N1_13  and  C4_14
REMARK                            x       y       z     vdW  Elec       q    Type
REMARK                         _______ _______ _______ _____ _____    ______ ____
ROOT
ATOM      1  C12 68H R 401      89.562  88.122 127.854  0.00  0.00    +0.000 A 
ATOM      2  C11 68H R 401      89.092  88.119 126.539  0.00  0.00    +0.000 A 
ATOM      3  O1  68H R 401      88.329  87.077 126.101  0.00  0.00    +0.000 OA
ATOM      4  C10 68H R 401      89.376  89.148 125.649  0.00  0.00    +0.000 A 
ATOM      5  C9  68H R 401      90.150  90.204 126.095  0.00  0.00    +0.000 A 
ATOM      6  C13 68H R 401      90.331  89.184 128.284  0.00  0.00    +0.000 A 
ATOM      7  C8  68H R 401      90.614  90.209 127.399  0.00  0.00    +0.000 A 
ENDROOT
BRANCH   1   9
ATOM      8  O2  68H R 401      88.054  86.413 128.308  0.00  0.00    +0.000 OA
ATOM      9  C2  68H R 401      89.230  86.999 128.769  0.00  0.00    +0.000 C 
ENDBRANCH   1   9
BRANCH   7  10
ATOM     10  C1  68H R 401      91.448  91.331 127.894  0.00  0.00    +0.000 C 
ATOM     11  O3  68H R 401      91.631  92.290 126.916  0.00  0.00    +0.000 OA
BRANCH  10  12
ATOM     12  C3  68H R 401      90.732  91.908 129.112  0.00  0.00    +0.000 C 
BRANCH  12  13
ATOM     13  N1  68H R 401      91.460  93.133 129.491  0.00  0.00    +0.000 NA
BRANCH  13  14
ATOM     14  C4  68H R 401      91.162  93.598 130.868  0.00  0.00    +0.000 C 
ATOM     15  C7  68H R 401      91.894  94.898 131.205  0.00  0.00    +0.000 C 
ATOM     16  C6  68H R 401      89.664  93.846 131.030  0.00  0.00    +0.000 C 
ATOM     17  C5  68H R 401      91.606  92.503 131.844  0.00  0.00    +0.000 C 
ENDBRANCH  13  14
ENDBRANCH  12  13
ENDBRANCH  10  12
ENDBRANCH   7  10
TORSDOF 5
